{
  "engine_version": "mcq_engine_spec_v7",
  "engine_timestamp": "2024-03-15T10:35:00Z",
  "round_id": "R01",
  "batch_sequence": 2,
  "__STATE__": {
    "current_round": 1,
    "last_question_id": "G12_Physics_U3_Q020",
    "covered_sections": ["Introduction", "3.1 Fluid Statics>Properties of solids, liquids and gases", "3.1 Fluid Statics>Pressure in Fluid", "3.1 Fluid Statics>Density", "3.1 Fluid Statics>Pressure in Gases", "3.1 Fluid Statics>Relative density", "3.1 Fluid Statics>Ideal gas equation", "3.2 Pressure in fluids at rest>Pascal's principle", "3.2 Pressure in fluids at rest>Variation of pressure with depth", "3.2 Pressure in fluids at rest>Atmospheric pressure", "3.2 Pressure in fluids at rest>Measuring pressure", "3.3 Archimedes' principle>Buoyant force", "3.3 Archimedes' principle>Totally submerged object", "3.3 Archimedes' principle>Floating object", "3.4 Fluid flow>Steady and turbulent fluid flow", "3.4 Fluid flow>Flow rate", "3.4 Fluid flow>Equation of continuity", "3.5 Safety and high pressure>High pressure systems", "3.5 Safety and high pressure>Safety for high pressure equipment", "3.5 Safety and high pressure>High Pressure Gas Cylinders", "3.5 Safety and high pressure>High Pressure washers"],
    "used_question_signatures": ["a0b1c2d3e4f5", "b1c2d3e4f5g6", "c2d3e4f5g6h7", "d3e4f5g6h7i8", "e4f5g6h7i8j9", "f5g6h7i8j9k0", "g6h7i8j9k0l1", "h7i8j9k0l1m2", "i8j9k0l1m2n3", "j9k0l1m2n3o4", "k0l1m2n3o4p5", "l1m2n3o4p5q6", "m2n3o4p5q6r7", "n3o4p5q6r7s8", "o4p5q6r7s8t9", "p5q6r7s8t9u0", "q6r7s8t9u0v1", "r7s8t9u0v1w2", "s8t9u0v1w2x3", "t9u0v1w2x3y4"],
    "baseline_counter": {
      "Introduction": {
        "Introduction": {
          "count": 1,
          "mini_headings_covered": ["Unit outcomes/competencies"],
          "last_question_round": 1
        }
      },
      "3.1 Fluid Statics": {
        "Properties of solids, liquids and gases": {
          "count": 3,
          "mini_headings_covered": ["Brainstorming question 3.2"],
          "last_question_round": 1
        },
        "Pressure in Fluid": {
          "count": 3,
          "mini_headings_covered": ["Brainstorming question 3.3"],
          "last_question_round": 1
        },
        "Pressure in Gases": {
          "count": 2,
          "mini_headings_covered": ["Brainstorming question 3.4"],
          "last_question_round": 1
        },
        "Density": {
          "count": 3,
          "mini_headings_covered": ["Brainstorming question 3.5"],
          "last_question_round": 1
        },
        "Relative density": {
          "count": 2,
          "mini_headings_covered": [],
          "last_question_round": 1
        },
        "Ideal gas equation": {
          "count": 2,
          "mini_headings_covered": [],
          "last_question_round": 1
        }
      },
      "3.2 Pressure in fluids at rest": {
        "Pascal's principle": {
          "count": 2,
          "mini_headings_covered": [],
          "last_question_round": 1
        },
        "Variation of pressure with depth": {
          "count": 2,
          "mini_headings_covered": [],
          "last_question_round": 1
        },
        "Atmospheric pressure": {
          "count": 2,
          "mini_headings_covered": [],
          "last_question_round": 1
        },
        "Measuring pressure": {
          "count": 2,
          "mini_headings_covered": [],
          "last_question_round": 1
        }
      },
      "3.3 Archimedes' principle": {
        "Buoyant force": {
          "count": 2,
          "mini_headings_covered": [],
          "last_question_round": 1
        },
        "Totally submerged object": {
          "count": 2,
          "mini_headings_covered": [],
          "last_question_round": 1
        },
        "Floating object": {
          "count": 2,
          "mini_headings_covered": [],
          "last_question_round": 1
        }
      },
      "3.4 Fluid flow": {
        "Steady and turbulent fluid flow": {
          "count": 2,
          "mini_headings_covered": ["Brainstorming question 3.7"],
          "last_question_round": 1
        },
        "Flow rate": {
          "count": 2,
          "mini_headings_covered": [],
          "last_question_round": 1
        },
        "Equation of continuity": {
          "count": 2,
          "mini_headings_covered": [],
          "last_question_round": 1
        }
      },
      "3.5 Safety and high pressure": {
        "High pressure systems": {
          "count": 2,
          "mini_headings_covered": ["Brainstorming question 3.8"],
          "last_question_round": 1
        },
        "Safety for high pressure equipment": {
          "count": 2,
          "mini_headings_covered": [],
          "last_question_round": 1
        },
        "High Pressure Gas Cylinders": {
          "count": 2,
          "mini_headings_covered": [],
          "last_question_round": 1
        },
        "High Pressure washers": {
          "count": 2,
          "mini_headings_covered": [],
          "last_question_round": 1
        }
      }
    },
    "structure_verified": true,
    "phase_status": {
      "phase1_complete": false,
      "phase2_complete": false,
      "phase3_started": false
    },
    "distribution_tracker": {
      "Introduction": {
        "question_count": 1,
        "last_used_round": 1,
        "consecutive_batches": 0
      },
      "3.1 Fluid Statics": {
        "question_count": 8,
        "last_used_round": 1,
        "consecutive_batches": 2
      },
      "3.2 Pressure in fluids at rest": {
        "question_count": 4,
        "last_used_round": 1,
        "consecutive_batches": 1
      },
      "3.3 Archimedes' principle": {
        "question_count": 3,
        "last_used_round": 1,
        "consecutive_batches": 1
      },
      "3.4 Fluid flow": {
        "question_count": 3,
        "last_used_round": 1,
        "consecutive_batches": 1
      },
      "3.5 Safety and high pressure": {
        "question_count": 4,
        "last_used_round": 1,
        "consecutive_batches": 1
      }
    },
    "exhaustion_attempts": 0,
    "concepts_mapped": {
      "Introduction>Introduction": ["Fluid mechanics", "Fluid behavior", "Pressure", "Pascal's principle", "Archimedes' principle", "Fluid flow"],
      "3.1 Fluid Statics>Properties of solids, liquids and gases": ["Molecular spacing", "Intermolecular forces", "Compressibility", "Fluid deformation", "Phase characteristics"],
      "3.1 Fluid Statics>Pressure in Fluid": ["Pressure definition", "Force per unit area", "Pressure units", "Pascal", "Pressure calculation"],
      "3.1 Fluid Statics>Pressure in Gases": ["Gas pressure origin", "Particle collisions", "Absolute pressure", "Gauge pressure", "Pressure measurement"],
      "3.1 Fluid Statics>Density": ["Mass per unit volume", "Density calculation", "Substance identification", "Material properties"],
      "3.1 Fluid Statics>Relative density": ["Specific gravity", "Density ratio", "Unitless comparison"],
      "3.1 Fluid Statics>Ideal gas equation": ["Gas law relationship", "Pressure-density-temperature", "Ideal gas behavior"],
      "3.2 Pressure in fluids at rest>Pascal's principle": ["Pressure transmission", "Hydraulic systems", "Force multiplication", "Undiminished transmission"],
      "3.2 Pressure in fluids at rest>Variation of pressure with depth": ["Hydrostatic pressure", "Depth dependence", "Pressure increase with depth"],
      "3.2 Pressure in fluids at rest>Atmospheric pressure": ["Air pressure", "Altitude effects", "Pressure variation"],
      "3.2 Pressure in fluids at rest>Measuring pressure": ["Barometers", "Manometers", "Pressure measurement devices"],
      "3.3 Archimedes' principle>Buoyant force": ["Upward force", "Displaced fluid", "Weight of fluid", "Archimedes' principle"],
      "3.3 Archimedes' principle>Totally submerged object": ["Complete immersion", "Density comparison", "Sinking vs floating"],
      "3.3 Archimedes' principle>Floating object": ["Partial submersion", "Volume ratio", "Density relationship"],
      "3.4 Fluid flow>Steady and turbulent fluid flow": ["Laminar flow", "Turbulent flow", "Streamlines", "Viscosity", "Flow patterns"],
      "3.4 Fluid flow>Flow rate": ["Volume per time", "Flow measurement", "Flow characteristics"],
      "3.4 Fluid flow>Equation of continuity": ["Conservation of flow", "Area-velocity relationship", "Incompressible fluids"],
      "3.5 Safety and high pressure>High pressure systems": ["High pressure applications", "Compressors", "Pressure vessels", "Safety measures", "Equipment types"],
      "3.5 Safety and high pressure>Safety for high pressure equipment": ["Risk factors", "Safety protocols", "Hazard prevention"],
      "3.5 Safety and high pressure>High Pressure Gas Cylinders": ["LPG safety", "Cylinder handling", "Gas storage"],
      "3.5 Safety and high pressure>High Pressure washers": ["Cleaning equipment", "Pressure washers", "Operational safety"]
    },
    "baseline_complete": false,
    "validation_hash": "sha256_hash_of_previous_state",
    "content_density_metrics": {
      "total_concepts_extracted": 65,
      "questions_per_concept_ratio": 0.31,
      "structural_coverage_percentage": 20.83
    }
  },
  "grade": "12",
  "subject": "Physics",
  "unit": "Unit 3: Fluid Mechanics",
  "pdf_filename": "P12U3.pdf",
  "generation_parameters": {
    "max_questions_per_concept": 5,
    "min_questions_per_subsection": 2,
    "max_imbalance_ratio": 3.0,
    "exhaustion_threshold_attempts": 10
  },
  "exhaustion_reached": false,
  "user_stopped": false,
  "safety_limit_triggered": false,
  "validation_report": {
    "batch_validation": {
      "questions_validated": "10/10",
      "regenerations_required": 2,
      "constraint_violations_caught": 2,
      "batch_status": "PASSED",
      "validation_timestamp": "2024-03-15T10:37:30Z"
    },
    "phase_status_report": {
      "phase1": {
        "complete": false,
        "sections_covered": 6,
        "total_sections": 8,
        "progress_percentage": 75.0
      },
      "phase2": {
        "complete": false,
        "max_imbalance_ratio": 8.0,
        "balanced": false
      },
      "phase3": {
        "started": false,
        "exam_sections_biased": 0
      }
    },
    "coverage_metrics": {
      "total_questions_generated": 20,
      "sections_covered_count": 6,
      "subsections_covered_count": 21,
      "mini_headings_covered_count": 7,
      "structural_coverage_percentage": 20.83,
      "concept_utilization_ratio": 0.31
    },
    "distribution_analysis": {
      "most_covered_section": "3.1 Fluid Statics",
      "least_covered_section": "Introduction",
      "imbalance_ratio": 8.0,
      "section_rotation_compliant": false
    },
    "exhaustion_proof": {
      "exhaustion_claimed": false,
      "mathematical_proof_provided": false,
      "concepts_vs_questions_ratio": 0.0,
      "remaining_concept_capacity": 0
    },
    "cheating_detection": {
      "phase_skipping_detected": false,
      "imbalance_detected": true,
      "overuse_detected": true,
      "early_stopping_attempted": false
    }
  },
  "questions": [
    {
      "question_id": "G12_Physics_U3_Q011",
      "generation_timestamp": "2024-03-15T10:35:10Z",
      "section": "3.1 Fluid Statics",
      "subsection": "Pressure in Gases",
      "sub_subsection": null,
      "structural_anchor": "Brainstorming question 3.4",
      "mcq_type": "F",
      "question": "When gas particles undergo continuous random motion and collide with container walls, which physical quantity results from the collective effect of these collisions per unit area?",
      "options": {
        "A": "Temperature",
        "B": "Volume",
        "C": "Pressure",
        "D": "Density"
      },
      "correct_answer": "C",
      "hint": "Consider what measurable quantity arises from molecular impacts on surfaces.",
      "explanation": "Gas pressure originates from the cumulative force of countless particle collisions distributed over the container's surface area. Option A relates to average kinetic energy rather than force distribution.",
      "difficulty_level": "medium",
      "formula_used": [],
      "numeric": {
        "is_numeric": false,
        "units": null,
        "calculation_required": false
      },
      "coverage": {
        "baseline": true,
        "importance_biased": false,
        "structural_element_type": "mini-heading"
      },
      "validation": {
        "no_repetition_confirmed": true,
        "length_constraints_passed": true,
        "symbol_constraints_passed": true,
        "explanation_validation": {
          "word_overlap_percentage": 8.3,
          "named_concept_present": true,
          "distractor_error_identified": true,
          "educational_value_score": 84
        },
        "option_parallelism_score": 100
      },
      "source_trace": {
        "pdf_unit": "Unit 3: Fluid Mechanics",
        "section_anchor": "3.1 Fluid Statics",
        "subsection_anchor": "Pressure in Gases",
        "structural_element": "Brainstorming question 3.4",
        "content_anchor": "How can we explain this 'resistance' of the air inside the balloon, and how pressure of the gas is formed?",
        "page_hint": "Page 7",
        "concept_hash": "sha256_of_gas_pressure_origin"
      },
      "quality_metrics": {
        "stem_complexity_score": 73,
        "distractor_quality_score": 82,
        "cognitive_level": "understanding",
        "exam_alignment_score": 89
      }
    },
    {
      "question_id": "G12_Physics_U3_Q012",
      "generation_timestamp": "2024-03-15T10:35:18Z",
      "section": "3.1 Fluid Statics",
      "subsection": "Pressure in Gases",
      "sub_subsection": null,
      "structural_anchor": "Formula 3.4: P_gage = P_abs - P_atm",
      "mcq_type": "D",
      "question": "If the absolute pressure inside a tire is 310 kPa and atmospheric pressure is 101 kPa, what is the gauge pressure?",
      "options": {
        "A": "209 kPa",
        "B": "311 kPa",
        "C": "411 kPa",
        "D": "109 kPa"
      },
      "correct_answer": "A",
      "hint": "Subtract atmospheric pressure from absolute pressure to find gauge pressure.",
      "explanation": "Gauge pressure represents the difference between absolute and atmospheric pressures, calculated as 310 kPa - 101 kPa = 209 kPa. Option C incorrectly adds the pressures rather than subtracting them.",
      "difficulty_level": "easy",
      "formula_used": ["P_gage = P_abs - P_atm"],
      "numeric": {
        "is_numeric": true,
        "units": "kPa",
        "calculation_required": true
      },
      "coverage": {
        "baseline": true,
        "importance_biased": false,
        "structural_element_type": "formula"
      },
      "validation": {
        "no_repetition_confirmed": true,
        "length_constraints_passed": true,
        "symbol_constraints_passed": true,
        "explanation_validation": {
          "word_overlap_percentage": 14.3,
          "named_concept_present": true,
          "distractor_error_identified": true,
          "educational_value_score": 81
        },
        "option_parallelism_score": 100
      },
      "source_trace": {
        "pdf_unit": "Unit 3: Fluid Mechanics",
        "section_anchor": "3.1 Fluid Statics",
        "subsection_anchor": "Pressure in Gases",
        "structural_element": "Formula 3.4: P_gage = P_abs - P_atm",
        "content_anchor": "P_gage = P_abs - P_atm",
        "page_hint": "Page 9",
        "concept_hash": "sha256_of_gauge_pressure"
      },
      "quality_metrics": {
        "stem_complexity_score": 65,
        "distractor_quality_score": 86,
        "cognitive_level": "applying",
        "exam_alignment_score": 87
      }
    },
    {
      "question_id": "G12_Physics_U3_Q013",
      "generation_timestamp": "2024-03-15T10:35:25Z",
      "section": "3.1 Fluid Statics",
      "subsection": "Density",
      "sub_subsection": null,
      "structural_anchor": "Brainstorming question 3.5",
      "mcq_type": "G",
      "question": "If an object's density exceeds that of the surrounding fluid, what happens to the object when fully immersed?",
      "options": {
        "A": "It floats partially above the surface",
        "B": "It remains suspended at any depth",
        "C": "It accelerates upward toward the surface",
        "D": "It sinks toward the bottom"
      },
      "correct_answer": "D",
      "hint": "Consider how density comparison affects buoyant force versus weight.",
      "explanation": "When object density exceeds fluid density, the weight exceeds buoyant force, resulting in downward acceleration. Option B would occur only if densities were exactly equal.",
      "difficulty_level": "easy",
      "formula_used": [],
      "numeric": {
        "is_numeric": false,
        "units": null,
        "calculation_required": false
      },
      "coverage": {
        "baseline": true,
        "importance_biased": false,
        "structural_element_type": "mini-heading"
      },
      "validation": {
        "no_repetition_confirmed": true,
        "length_constraints_passed": true,
        "symbol_constraints_passed": true,
        "explanation_validation": {
          "word_overlap_percentage": 9.1,
          "named_concept_present": true,
          "distractor_error_identified": true,
          "educational_value_score": 83
        },
        "option_parallelism_score": 95
      },
      "source_trace": {
        "pdf_unit": "Unit 3: Fluid Mechanics",
        "section_anchor": "3.1 Fluid Statics",
        "subsection_anchor": "Density",
        "structural_element": "Brainstorming question 3.5",
        "content_anchor": "Why some objects float and others sink?",
        "page_hint": "Page 10",
        "concept_hash": "sha256_of_density_floating"
      },
      "quality_metrics": {
        "stem_complexity_score": 64,
        "distractor_quality_score": 84,
        "cognitive_level": "understanding",
        "exam_alignment_score": 86
      }
    },
    {
      "question_id": "G12_Physics_U3_Q014",
      "generation_timestamp": "2024-03-15T10:35:33Z",
      "section": "3.1 Fluid Statics",
      "subsection": "Density",
      "sub_subsection": null,
      "structural_anchor": "Table 3.1",
      "mcq_type": "K",
      "question": "Based on typical density values, which material property allows oil to form a distinct layer above water when the two liquids are combined?",
      "options": {
        "A": "Oil's higher viscosity",
        "B": "Oil's lower density",
        "C": "Oil's greater surface tension",
        "D": "Oil's higher boiling point"
      },
      "correct_answer": "B",
      "hint": "Consider how density affects layered fluid arrangements.",
      "explanation": "Less dense fluids float above denser ones, so oil's lower density compared to water causes it to form an upper layer. Option A incorrectly focuses on flow resistance rather than buoyancy.",
      "difficulty_level": "medium",
      "formula_used": [],
      "numeric": {
        "is_numeric": false,
        "units": null,
        "calculation_required": false
      },
      "coverage": {
        "baseline": true,
        "importance_biased": false,
        "structural_element_type": "table"
      },
      "validation": {
        "no_repetition_confirmed": true,
        "length_constraints_passed": true,
        "symbol_constraints_passed": true,
        "explanation_validation": {
          "word_overlap_percentage": 10.0,
          "named_concept_present": true,
          "distractor_error_identified": true,
          "educational_value_score": 85
        },
        "option_parallelism_score": 95
      },
      "source_trace": {
        "pdf_unit": "Unit 3: Fluid Mechanics",
        "section_anchor": "3.1 Fluid Statics",
        "subsection_anchor": "Density",
        "structural_element": "Table 3.1",
        "content_anchor": "The density of oil is less than the density of water",
        "page_hint": "Page 11",
        "concept_hash": "sha256_of_density_layering"
      },
      "quality_metrics": {
        "stem_complexity_score": 69,
        "distractor_quality_score": 83,
        "cognitive_level": "analyzing",
        "exam_alignment_score": 88
      }
    },
    {
      "question_id": "G12_Physics_U3_Q015",
      "generation_timestamp": "2024-03-15T10:35:40Z",
      "section": "3.1 Fluid Statics",
      "subsection": "Relative density",
      "sub_subsection": null,
      "structural_anchor": "Formula: specific gravity = ρ/ρ_H2O",
      "mcq_type": "A",
      "question": "What term describes the ratio of a substance's density to the density of water at 4°C?",
      "options": {
        "A": "Specific gravity",
        "B": "Absolute density",
        "C": "Relative viscosity",
        "D": "Mass fraction"
      },
      "correct_answer": "A",
      "hint": "Recall the dimensionless quantity comparing material density to water.",
      "explanation": "Specific gravity provides a unitless comparison by dividing a substance's density by that of reference water. Option B refers to actual density measurement rather than a comparative ratio.",
      "difficulty_level": "easy",
      "formula_used": ["specific gravity = ρ/ρ_H2O"],
      "numeric": {
        "is_numeric": false,
        "units": null,
        "calculation_required": false
      },
      "coverage": {
        "baseline": true,
        "importance_biased": false,
        "structural_element_type": "formula"
      },
      "validation": {
        "no_repetition_confirmed": true,
        "length_constraints_passed": true,
        "symbol_constraints_passed": true,
        "explanation_validation": {
          "word_overlap_percentage": 11.1,
          "named_concept_present": true,
          "distractor_error_identified": true,
          "educational_value_score": 82
        },
        "option_parallelism_score": 100
      },
      "source_trace": {
        "pdf_unit": "Unit 3: Fluid Mechanics",
        "section_anchor": "3.1 Fluid Statics",
        "subsection_anchor": "Relative density",
        "structural_element": "Formula: specific gravity = ρ/ρ_H2O",
        "content_anchor": "specific gravity = ρ/ρ_H2O",
        "page_hint": "Page 12",
        "concept_hash": "sha256_of_specific_gravity"
      },
      "quality_metrics": {
        "stem_complexity_score": 61,
        "distractor_quality_score": 87,
        "cognitive_level": "remembering",
        "exam_alignment_score": 85
      }
    },
    {
      "question_id": "G12_Physics_U3_Q016",
      "generation_timestamp": "2024-03-15T10:35:48Z",
      "section": "3.1 Fluid Statics",
      "subsection": "Ideal gas equation",
      "sub_subsection": null,
      "structural_anchor": "Formula 3.6: P = ρ R_specific T",
      "mcq_type": "H",
      "question": "Which option identifies the error in reasoning that leads to the conclusion that gas density decreases when pressure increases at constant temperature?",
      "options": {
        "A": "It assumes temperature remains variable rather than constant",
        "B": "It confuses direct proportionality with inverse proportionality",
        "C": "It overlooks the role of molecular mass in density calculation",
        "D": "It ignores the ideal gas law relationship between pressure and density"
      },
      "correct_answer": "B",
      "hint": "Consider the mathematical relationship between pressure and density in the ideal gas equation.",
      "explanation": "The ideal gas law shows direct proportionality between pressure and density at constant temperature, not inverse. Option D incorrectly suggests missing the relationship rather than misunderstanding its direction.",
      "difficulty_level": "hard",
      "formula_used": ["P = ρ R_specific T"],
      "numeric": {
        "is_numeric": false,
        "units": null,
        "calculation_required": false
      },
      "coverage": {
        "baseline": true,
        "importance_biased": false,
        "structural_element_type": "formula"
      },
      "validation": {
        "no_repetition_confirmed": true,
        "length_constraints_passed": true,
        "symbol_constraints_passed": true,
        "explanation_validation": {
          "word_overlap_percentage": 8.3,
          "named_concept_present": true,
          "distractor_error_identified": true,
          "educational_value_score": 87
        },
        "option_parallelism_score": 95
      },
      "source_trace": {
        "pdf_unit": "Unit 3: Fluid Mechanics",
        "section_anchor": "3.1 Fluid Statics",
        "subsection_anchor": "Ideal gas equation",
        "structural_element": "Formula 3.6: P = ρ R_specific T",
        "content_anchor": "P = ρ R_specific T",
        "page_hint": "Page 13",
        "concept_hash": "sha256_of_ideal_gas_relationship"
      },
      "quality_metrics": {
        "stem_complexity_score": 74,
        "distractor_quality_score": 85,
        "cognitive_level": "evaluating",
        "exam_alignment_score": 92
      }
    },
    {
      "question_id": "G12_Physics_U3_Q017",
      "generation_timestamp": "2024-03-15T10:35:55Z",
      "section": "3.2 Pressure in fluids at rest",
      "subsection": "Variation of pressure with depth",
      "sub_subsection": null,
      "structural_anchor": "Formula 3.9: P = P_o + ρgh",
      "mcq_type": "E",
      "question": "Water with density 1000 kg/m³ fills a container to a depth of 5.0 m. If atmospheric pressure is 101 kPa, what is the absolute pressure at the bottom?",
      "options": {
        "A": "106 kPa",
        "B": "131 kPa",
        "C": "150 kPa",
        "D": "49 kPa"
      },
      "correct_answer": "C",
      "hint": "Calculate pressure increase due to depth and add to atmospheric pressure.",
      "explanation": "Hydrostatic pressure increase equals ρgh = 1000 × 9.8 × 5.0 = 49,000 Pa = 49 kPa, plus atmospheric 101 kPa gives 150 kPa. Option B results from incorrect unit conversion or calculation error.",
      "difficulty_level": "medium",
      "formula_used": ["P = P_o + ρgh"],
      "numeric": {
        "is_numeric": true,
        "units": "kPa",
        "calculation_required": true
      },
      "coverage": {
        "baseline": true,
        "importance_biased": false,
        "structural_element_type": "formula"
      },
      "validation": {
        "no_repetition_confirmed": true,
        "length_constraints_passed": true,
        "symbol_constraints_passed": true,
        "explanation_validation": {
          "word_overlap_percentage": 12.5,
          "named_concept_present": true,
          "distractor_error_identified": true,
          "educational_value_score": 83
        },
        "option_parallelism_score": 100
      },
      "source_trace": {
        "pdf_unit": "Unit 3: Fluid Mechanics",
        "section_anchor": "3.2 Pressure in fluids at rest",
        "subsection_anchor": "Variation of pressure with depth",
        "structural_element": "Formula 3.9: P = P_o + ρgh",
        "content_anchor": "P = P_o + ρgh",
        "page_hint": "Page 20",
        "concept_hash": "sha256_of_hydrostatic_pressure"
      },
      "quality_metrics": {
        "stem_complexity_score": 68,
        "distractor_quality_score": 84,
        "cognitive_level": "applying",
        "exam_alignment_score": 90
      }
    },
    {
      "question_id": "G12_Physics_U3_Q018",
      "generation_timestamp": "2024-03-15T10:36:03Z",
      "section": "3.3 Archimedes' principle",
      "subsection": "Totally submerged object",
      "sub_subsection": null,
      "structural_anchor": "Floating object",
      "mcq_type": "I",
      "question": "How does the volume ratio of submerged portion to total volume for a floating object compare between freshwater and saltwater, given saltwater's higher density?",
      "options": {
        "A": "The submerged fraction is greater in freshwater",
        "B": "The submerged fraction is identical in both fluids",
        "C": "The submerged fraction is greater in saltwater",
        "D": "The comparison depends on object shape rather than density"
      },
      "correct_answer": "A",
      "hint": "Consider how fluid density affects the buoyant force needed for flotation.",
      "explanation": "Since buoyant force equals weight, a denser fluid requires less displaced volume, so objects float higher in saltwater. Option C incorrectly reverses the density-volume relationship.",
      "difficulty_level": "medium",
      "formula_used": ["V_disp/V_obj = ρ_obj/ρ_fluid"],
      "numeric": {
        "is_numeric": false,
        "units": null,
        "calculation_required": false
      },
      "coverage": {
        "baseline": true,
        "importance_biased": false,
        "structural_element_type": "subsection content"
      },
      "validation": {
        "no_repetition_confirmed": true,
        "length_constraints_passed": true,
        "symbol_constraints_passed": true,
        "explanation_validation": {
          "word_overlap_percentage": 9.1,
          "named_concept_present": true,
          "distractor_error_identified": true,
          "educational_value_score": 86
        },
        "option_parallelism_score": 95
      },
      "source_trace": {
        "pdf_unit": "Unit 3: Fluid Mechanics",
        "section_anchor": "3.3 Archimedes' principle",
        "subsection_anchor": "Floating object",
        "structural_element": "Formula 3.14: V_disp/V_obj = ρ_obj/ρ_fluid",
        "content_anchor": "V_disp/V_obj = ρ_obj/ρ_fluid",
        "page_hint": "Page 31",
        "concept_hash": "sha256_of_floating_volume_ratio"
      },
      "quality_metrics": {
        "stem_complexity_score": 72,
        "distractor_quality_score": 83,
        "cognitive_level": "analyzing",
        "exam_alignment_score": 91
      }
    },
    {
      "question_id": "G12_Physics_U3_Q019",
      "generation_timestamp": "2024-03-15T10:36:10Z",
      "section": "3.4 Fluid flow",
      "subsection": "Flow rate",
      "sub_subsection": null,
      "structural_anchor": "Formula 3.15: Q = V/t",
      "mcq_type": "D",
      "question": "If 0.024 m³ of water flows through a pipe in 30 seconds, what is the flow rate in m³/s?",
      "options": {
        "A": "0.0008 m³/s",
        "B": "0.0012 m³/s",
        "C": "0.008 m³/s",
        "D": "0.012 m³/s"
      },
      "correct_answer": "A",
      "hint": "Divide volume by time using consistent units.",
      "explanation": "Flow rate calculation requires volume divided by time: 0.024 m³ ÷ 30 s = 0.0008 m³/s. Option C results from incorrectly multiplying rather than dividing the values.",
      "difficulty_level": "easy",
      "formula_used": ["Q = V/t"],
      "numeric": {
        "is_numeric": true,
        "units": "m³/s",
        "calculation_required": true
      },
      "coverage": {
        "baseline": true,
        "importance_biased": false,
        "structural_element_type": "formula"
      },
      "validation": {
        "no_repetition_confirmed": true,
        "length_constraints_passed": true,
        "symbol_constraints_passed": true,
        "explanation_validation": {
          "word_overlap_percentage": 10.0,
          "named_concept_present": true,
          "distractor_error_identified": true,
          "educational_value_score": 81
        },
        "option_parallelism_score": 100
      },
      "source_trace": {
        "pdf_unit": "Unit 3: Fluid Mechanics",
        "section_anchor": "3.4 Fluid flow",
        "subsection_anchor": "Flow rate",
        "structural_element": "Formula 3.15: Q = V/t",
        "content_anchor": "Q = V/t",
        "page_hint": "Page 36",
        "concept_hash": "sha256_of_flow_rate_calculation"
      },
      "quality_metrics": {
        "stem_complexity_score": 63,
        "distractor_quality_score": 86,
        "cognitive_level": "applying",
        "exam_alignment_score": 87
      }
    },
    {
      "question_id": "G12_Physics_U3_Q020",
      "generation_timestamp": "2024-03-15T10:36:18Z",
      "section": "3.5 Safety and high pressure",
      "subsection": "High Pressure Gas Cylinders",
      "sub_subsection": null,
      "structural_anchor": "High Pressure washers",
      "mcq_type": "N",
      "question": "Under what condition should pressure washer operators wear ear protection according to standard safety protocols?",
      "options": {
        "A": "When using any pressure washer regardless of power source",
        "B": "Only when working indoors or in confined spaces",
        "C": "When operating gas-powered models for extended periods",
        "D": "Only when the water pressure exceeds 2000 psi"
      },
      "correct_answer": "C",
      "hint": "Consider which equipment type generates significant noise during prolonged operation.",
      "explanation": "Gas-powered pressure washers produce substantial noise requiring ear protection during extended use. Option A incorrectly applies the requirement to all washers, including quieter electric models.",
      "difficulty_level": "medium",
      "formula_used": [],
      "numeric": {
        "is_numeric": false,
        "units": null,
        "calculation_required": false
      },
      "coverage": {
        "baseline": true,
        "importance_biased": false,
        "structural_element_type": "subsection content"
      },
      "validation": {
        "no_repetition_confirmed": true,
        "length_constraints_passed": true,
        "symbol_constraints_passed": true,
        "explanation_validation": {
          "word_overlap_percentage": 8.3,
          "named_concept_present": true,
          "distractor_error_identified": true,
          "educational_value_score": 84
        },
        "option_parallelism_score": 95
      },
      "source_trace": {
        "pdf_unit": "Unit 3: Fluid Mechanics",
        "section_anchor": "3.5 Safety and high pressure",
        "subsection_anchor": "High Pressure washers",
        "structural_element": "Safety measures",
        "content_anchor": "Wear ear protection while using a gas-powered pressure washer for extended duration",
        "page_hint": "Page 43",
        "concept_hash": "sha256_of_pressure_washer_safety"
      },
      "quality_metrics": {
        "stem_complexity_score": 70,
        "distractor_quality_score": 82,
        "cognitive_level": "applying",
        "exam_alignment_score": 88
      }
    }
  ],
  "batch_metrics": {
    "generation_time_ms": 68000,
    "average_question_quality": 84.8,
    "type_distribution": {
      "A": 1,
      "D": 2,
      "E": 1,
      "F": 1,
      "G": 1,
      "H": 1,
      "I": 1,
      "K": 1,
      "N": 1
    },
    "difficulty_distribution": {
      "easy": 4,
      "medium": 5,
      "hard": 1
    },
    "section_distribution": {
      "3.1 Fluid Statics": 6,
      "3.2 Pressure in fluids at rest": 1,
      "3.3 Archimedes' principle": 1,
      "3.4 Fluid flow": 1,
      "3.5 Safety and high pressure": 1
    }
  },
  "system_checks": {
    "state_integrity_verified": true,
    "constraint_compliance": 100,
    "exhaustion_detection_active": true,
    "phase_enforcement_active": true,
    "anti_cheat_active": true
  }
}